                         Program Version 2.6 - Revision 00 -
|  1> #water
|  2>
|  3> ! MP2 STO-3G
|  4>
|  5> %output
|  6>   PrintLevel		Normal
|  7>   Print[ P_MOs ]  	1
|  8>   Print[ P_Overlap ] 	1
|  9> end
| 10>
| 11> * internal 0 1
| 12> O  0  0  0   0.00   0.00   0.00
| 13> H  1  0  0   0.99   0.00   0.00
| 14> H  1  2  0   0.99  106.0   0.00
| 15> *
| 16>
| 17>                          ****END OF INPUT****

CARTESIAN COORDINATES (ANGSTROEM)
---------------------------------
  O     0.000000    0.000000    0.000000
  H     0.990000    0.000000    0.000000
  H    -0.272881    0.951649    0.000000

 Total Charge           Charge          ....    0
 Multiplicity           Mult            ....    1
 Number of Electrons    NEL             ....   10
 Basis Dimension        Dim             ....    7

ORBITAL ENERGIES
----------------

  NO   OCC          E(Eh)            E(eV)
   0   2.0000     -20.243758      -550.8468
   1   2.0000      -1.250636       -34.0307
   2   2.0000      -0.603156       -16.4123
   3   2.0000      -0.445468       -12.1215
   4   2.0000      -0.388214       -10.5636
   5   0.0000       0.570730        15.5300
   6   0.0000       0.708570        19.2807
------------------
MOLECULAR ORBITALS
------------------
                      0         1         2         3         4         5
                 -20.24376  -1.25064  -0.60316  -0.44547  -0.38821   0.57073
                   2.00000   2.00000   2.00000   2.00000   2.00000   0.00000
                  --------  --------  --------  --------  --------  --------
  0O   1s         0.994203  0.234219 -0.000000  0.100457 -0.000000  0.128348
  0O   2s         0.025915 -0.845889  0.000000 -0.521388  0.000000 -0.832494
  0O   1pz       -0.000000  0.000000  0.000000  0.000000  1.000000  0.000000
  0O   1px        0.002403 -0.070437  0.481821  0.465963 -0.000000 -0.440905
  0O   1py        0.003189 -0.093474 -0.363078  0.618354 -0.000000 -0.585101
  1H   1s        -0.005627 -0.156448  0.446378  0.289072 -0.000000  0.775788
  2H   1s        -0.005627 -0.156448 -0.446378  0.289071 -0.000000  0.775788
                      6
                   0.70857
                   0.00000
                  --------
  0O   1s        -0.000000
  0O   2s         0.000000
  0O   1pz       -0.000000
  0O   1px        0.779847
  0O   1py       -0.587657
  1H   1s        -0.808900
  2H   1s         0.808900

MULLIKEN ATOMIC CHARGES
-----------------------
   0 O :   -0.339198
   1 H :    0.169599
   2 H :    0.169599
Sum of atomic charges:    0.0000000

LOEWDIN ATOMIC CHARGES
----------------------
   0 O :   -0.237853
   1 H :    0.118927
   2 H :    0.118927

  Mayer bond orders larger than 0.1
B(  0-O ,  1-H ) :   0.9584 B(  0-O ,  2-H ) :   0.9584

MP2 TOTAL ENERGY:      -75.002283425 Eh
FINAL SINGLE POINT ENERGY      -75.002283425

DIPOLE MOMENT
-------------
                                X             Y             Z
Electronic contribution:     -0.20068      -0.26631       0.00000
Nuclear contribution   :      0.59691       0.79213       0.00000
                        -----------------------------------------
Total Dipole Moment    :      0.39623       0.52582       0.00000
                        -----------------------------------------
Magnitude (a.u.)       :      0.65839
Magnitude (Debye)      :      1.67351

                             ****ORCA TERMINATED NORMALLY****
TOTAL RUN TIME: 0 days 0 hours 0 minutes 8 seconds 650 msec
