                         Program Version 2.6 - Revision 00 -
|  1> #divinyl-benzene
|  2>
|  3> ! RKS B3LYP NumFreq
|  4>
|  5> %basis basis _3_21G
|  6> end
|  7>
|  8> * xyz 0 1
|  9>   C      -1.253473      0.673562     -0.001768
| 10>   C      -1.188216     -0.732524     -0.001718
| 11>   C       0.037911     -1.386348     -0.001787
| 12>   C       1.253472     -0.673562     -0.000787
| 13>   C       1.188215      0.732524     -0.000806
| 14>   H      -2.101734     -1.315291     -0.002520
| 15>   H       0.066487     -2.471490     -0.001436
| 16>   H       2.101733      1.315292     -0.000537
| 17>   C       2.520853     -1.426335     -0.000357
| 18>   C       3.758089     -0.917661      0.002362
| 19>   H       3.950789      0.150588      0.004752
| 20>   H       2.402195     -2.508463     -0.002691
| 21>   H       4.631443     -1.560406      0.002911
| 22>   C      -2.520854      1.426334     -0.001230
| 23>   H      -2.402198      2.508461     -0.003945
| 24>   C      -3.758087      0.917662      0.002788
| 25>   H      -3.950784     -0.150586      0.006095
| 26>   H      -4.631440      1.560407      0.003945
| 27>   C      -0.037911      1.386348     -0.001865
| 28>   H      -0.066488      2.471490     -0.001404
| 29> *
| 30>
| 31>                          ****END OF INPUT****

CARTESIAN COORDINATES (ANGSTROEM)
---------------------------------
  C    -1.253473    0.673562   -0.001768
  C    -1.188216   -0.732524   -0.001718
  C     0.037911   -1.386348   -0.001787
  C     1.253472   -0.673562   -0.000787
  C     1.188215    0.732524   -0.000806
  H    -2.101734   -1.315291   -0.002520
  H     0.066487   -2.471490   -0.001436
  H     2.101733    1.315292   -0.000537
  C     2.520853   -1.426335   -0.000357
  C     3.758089   -0.917661    0.002362
  H     3.950789    0.150588    0.004752
  H     2.402195   -2.508463   -0.002691
  H     4.631443   -1.560406    0.002911
  C    -2.520854    1.426334   -0.001230
  H    -2.402198    2.508461   -0.003945
  C    -3.758087    0.917662    0.002788
  H    -3.950784   -0.150586    0.006095
  H    -4.631440    1.560407    0.003945
  C    -0.037911    1.386348   -0.001865
  H    -0.066488    2.471490   -0.001404

 Total Charge           Charge          ....    0
 Multiplicity           Mult            ....    1
 Number of Electrons    NEL             ....   70
 Basis Dimension        Dim             ....  110

ORBITAL ENERGIES
----------------

  NO   OCC          E(Eh)            E(eV)
   0   2.0000     -10.138179      -275.8669
   1   2.0000     -10.138093      -275.8646
   2   2.0000     -10.130081      -275.6466
   3   2.0000     -10.130071      -275.6463
   4   2.0000     -10.128253      -275.5969
   5   2.0000     -10.128231      -275.5963
   6   2.0000     -10.126577      -275.5512
   7   2.0000     -10.126271      -275.5429
   8   2.0000     -10.117780      -275.3119
   9   2.0000     -10.117774      -275.3117
  10   2.0000      -0.865725       -23.5570
  11   2.0000      -0.805868       -21.9282
  12   2.0000      -0.766961       -20.8695
  13   2.0000      -0.749895       -20.4052
  14   2.0000      -0.716344       -19.4922
  15   2.0000      -0.639111       -17.3907
  16   2.0000      -0.609033       -16.5722
  17   2.0000      -0.573958       -15.6178
  18   2.0000      -0.557636       -15.1737
  19   2.0000      -0.504983       -13.7409
  20   2.0000      -0.491441       -13.3724
  21   2.0000      -0.457127       -12.4387
  22   2.0000      -0.448313       -12.1989
  23   2.0000      -0.442063       -12.0288
  24   2.0000      -0.424151       -11.5414
  25   2.0000      -0.405925       -11.0455
  26   2.0000      -0.390887       -10.6363
  27   2.0000      -0.381265       -10.3745
  28   2.0000      -0.355465        -9.6724
  29   2.0000      -0.347137        -9.4458
  30   2.0000      -0.336568        -9.1582
  31   2.0000      -0.320981        -8.7341
  32   2.0000      -0.268130        -7.2960
  33   2.0000      -0.253093        -6.8868
  34   2.0000      -0.209742        -5.7072
  35   0.0000      -0.042825        -1.1653
  36   0.0000       0.006736         0.1833
  37   0.0000       0.025973         0.7067
  38   0.0000       0.097282         2.6471
  39   0.0000       0.114701         3.1211

MULLIKEN ATOMIC CHARGES
-----------------------
   0 C :   -0.015512
   1 C :   -0.190500
   2 C :   -0.180247
   3 C :   -0.015512
   4 C :   -0.190501
   5 H :    0.185301
   6 H :    0.184918
   7 H :    0.185301
   8 C :   -0.170247
   9 C :   -0.373604
  10 H :    0.184874
  11 H :    0.184796
  12 H :    0.190221
  13 C :   -0.170247
  14 H :    0.184796
  15 C :   -0.373604
  16 H :    0.184874
  17 H :    0.190221
  18 C :   -0.180247
  19 H :    0.184918
Sum of atomic charges:   -0.0000000

LOEWDIN ATOMIC CHARGES
----------------------
   0 C :   -0.029278
   1 C :   -0.085774
   2 C :   -0.087497
   3 C :   -0.029278
   4 C :   -0.085774
   5 H :    0.097325
   6 H :    0.096068
   7 H :    0.097324
   8 C :   -0.083908
   9 C :   -0.189697
  10 H :    0.091317
  11 H :    0.093262
  12 H :    0.098182
  13 C :   -0.083908
  14 H :    0.093262
  15 C :   -0.189697
  16 H :    0.091318
  17 H :    0.098182
  18 C :   -0.087497
  19 H :    0.096068

  Mayer bond orders larger than 0.1
B(  0-C ,  1-C ) :   1.3434 B(  0-C , 13-C ) :   1.0540 B(  0-C , 18-C ) :   1.3204
B(  1-C ,  2-C ) :   1.4350 B(  1-C ,  5-H ) :   0.9226 B(  2-C ,  3-C ) :   1.3204
B(  2-C ,  6-H ) :   0.9279 B(  3-C ,  4-C ) :   1.3434 B(  3-C ,  8-C ) :   1.0540
B(  4-C ,  7-H ) :   0.9226 B(  4-C , 18-C ) :   1.4350 B(  8-C ,  9-C ) :   1.8375
B(  8-C , 11-H ) :   0.9233 B(  9-C , 10-H ) :   0.9248 B(  9-C , 12-H ) :   0.9275
B( 13-C , 14-H ) :   0.9233 B( 13-C , 15-C ) :   1.8375 B( 15-C , 16-H ) :   0.9248
B( 15-C , 17-H ) :   0.9275 B( 18-C , 19-H ) :   0.9279

FINAL SINGLE POINT ENERGY     -384.666634398

DIPOLE MOMENT
-------------
                                X             Y             Z
Electronic contribution:     -0.00000      -0.00000      -0.00819
Nuclear contribution   :      0.00000       0.00000       0.00895
                        -----------------------------------------
Total Dipole Moment    :     -0.00000       0.00000       0.00076
                        -----------------------------------------
Magnitude (a.u.)       :      0.00076
Magnitude (Debye)      :      0.00192

VIBRATIONAL FREQUENCIES
-----------------------

   0:         0.00 cm**-1
   1:         0.00 cm**-1
   2:         0.00 cm**-1
   3:         0.00 cm**-1
   4:         0.00 cm**-1
   5:         0.00 cm**-1
   6:       341.56 cm**-1
   7:       356.51 cm**-1
   8:       356.98 cm**-1
   9:       496.21 cm**-1
  10:       549.24 cm**-1
  11:       638.82 cm**-1
  12:       652.63 cm**-1
  13:       680.32 cm**-1
  14:       787.90 cm**-1
  15:       853.42 cm**-1
  16:       858.58 cm**-1
  17:       876.03 cm**-1
  18:       936.15 cm**-1
  19:      1022.71 cm**-1
  20:      1081.98 cm**-1
  21:      1163.69 cm**-1
  22:      1183.59 cm**-1
  23:      1193.98 cm**-1
  24:      1202.36 cm**-1
  25:      1219.78 cm**-1
  26:      1235.41 cm**-1
  27:      1273.80 cm**-1
  28:      1277.74 cm**-1
  29:      1285.30 cm**-1
  30:      1300.20 cm**-1
  31:      1312.60 cm**-1
  32:      1313.53 cm**-1
  33:      1340.63 cm**-1
  34:      1347.89 cm**-1
  35:      1350.66 cm**-1
  36:      1357.93 cm**-1
  37:      1375.26 cm**-1
  38:      1414.37 cm**-1
  39:      1414.57 cm**-1
  40:      1456.98 cm**-1
  41:      1460.05 cm**-1
  42:      1596.00 cm**-1
  43:      1599.46 cm**-1
  44:      1653.42 cm**-1
  45:      1685.31 cm**-1
  46:      1702.29 cm**-1
  47:      1765.26 cm**-1
  48:      1775.22 cm**-1
  49:      1784.12 cm**-1
  50:      3506.95 cm**-1
  51:      3525.01 cm**-1
  52:      3527.68 cm**-1
  53:      3529.01 cm**-1
  54:      3539.72 cm**-1
  55:      3548.45 cm**-1
  56:      3557.16 cm**-1
  57:      3573.91 cm**-1
  58:      3656.85 cm**-1
  59:      3670.20 cm**-1

IR SPECTRUM
-----------

 Mode    freq (cm**-1)   T**2         TX         TY         TZ
-------------------------------------------------------------------
   6:       341.56    0.460230  ( -0.639387   0.226744  -0.001291)
   7:       356.51    0.007310  ( -0.002700  -0.000911  -0.085450)
   8:       356.98    0.001063  ( -0.015579  -0.000813   0.028631)
   9:       496.21    0.000172  (  0.003662   0.010946   0.006246)
  10:       549.24    2.259477  ( -1.061629   1.064151  -0.001867)
  11:       638.82    0.000428  ( -0.016522  -0.003786  -0.011870)
  12:       652.63    0.000041  (  0.004360   0.004637   0.000058)
  13:       680.32    0.002597  (  0.034144  -0.028690  -0.024661)
  14:       787.90   10.534810  ( -3.009809   1.214849  -0.000896)
  15:       853.42    1.286478  ( -0.002236   0.000766   1.134228)
  16:       858.58    0.001848  (  0.038735   0.000315  -0.018634)
  17:       876.03    0.000017  (  0.003922   0.001204  -0.000137)
  18:       936.15    0.017327  ( -0.000061  -0.001015  -0.131629)
  19:      1022.71    0.363115  ( -0.540062   0.267296  -0.001106)
  20:      1081.98   21.260944  ( -0.000126  -0.002075   4.610959)
  21:      1163.69    0.000601  (  0.021637  -0.011538   0.000440)
  22:      1183.59    1.631855  (  0.547788  -1.154025  -0.003239)
  23:      1193.98    1.123789  (  0.001984   0.004800   1.060077)
  24:      1202.36    0.021432  ( -0.035883  -0.021593  -0.140278)
  25:      1219.78    0.000042  (  0.001344   0.006330   0.000625)
  26:      1235.41    1.527811  ( -1.235390  -0.039981  -0.004801)
  27:      1273.80    0.017058  ( -0.012718  -0.035222  -0.125123)
  28:      1277.74    0.001615  ( -0.035674  -0.018512   0.000243)
  29:      1285.30    3.735933  (  1.793805   0.719853   0.002991)
  30:      1300.20   50.357054  (  0.012166  -0.000762  -7.096260)
  31:      1312.60    0.040301  ( -0.025334  -0.025725   0.197477)
  32:      1313.53  211.929958  (  0.006460   0.002625  14.557813)
  33:      1340.63    0.001250  ( -0.003473   0.021759   0.027657)
  34:      1347.89    0.006112  (  0.049959  -0.060119   0.001256)
  35:      1350.66    1.002494  ( -0.011760   0.011257   1.001114)
  36:      1357.93   20.995023  ( -0.019177   0.017189   4.581960)
  37:      1375.26   45.622593  (  4.056033  -5.400996   0.020551)
  38:      1414.37    0.015962  ( -0.048758   0.038982   0.109842)
  39:      1414.57    0.028693  (  0.051481  -0.039468  -0.156477)
  40:      1456.98    0.015750  ( -0.125230  -0.001061   0.008170)
  41:      1460.05    9.023706  ( -2.857304   0.927101   0.001586)
  42:      1596.00    1.328413  (  1.120358   0.255404  -0.089332)
  43:      1599.46   24.889059  ( -4.871583  -1.075375  -0.017597)
  44:      1653.42   11.457559  (  0.703775   3.310930   0.001344)
  45:      1685.31    0.027859  ( -0.155487   0.053679   0.028305)
  46:      1702.29   31.196416  ( -5.322889   1.692118  -0.002942)
  47:      1765.26    0.013406  ( -0.069968  -0.091891   0.008147)
  48:      1775.22   17.258406  (  3.124580   2.737773  -0.002786)
  49:      1784.12    0.064791  ( -0.202017  -0.146352  -0.050613)
  50:      3506.95    3.611125  (  1.577371   1.059730   0.000164)
  51:      3525.01   12.007749  (  2.679115  -2.197717   0.011474)
  52:      3527.68    9.518137  (  3.064458  -0.356692   0.002498)
  53:      3529.01   37.152842  (  5.647566   2.292949   0.014992)
  54:      3539.72   43.936661  ( -6.592603   0.688323   0.021543)
  55:      3548.45   15.507558  ( -2.227974  -3.247099   0.006186)
  56:      3557.16    6.539584  (  2.437151   0.774493   0.006379)
  57:      3573.91    4.219725  (  2.021395   0.365615  -0.003359)
  58:      3656.85    3.999961  (  0.884548  -1.793747  -0.002455)
  59:      3670.20    3.537519  ( -0.555046   1.797062  -0.003474)

--------------------------
THERMOCHEMISTRY AT 298.15K
--------------------------

Temperature         ... 298.15 K
Pressure            ... 1.00 atm
Total Mass          ... 130.19 AMU

Throughout the following assumptions are being made:
  (1) The electronic state is orbitally nondegenerate
  (2) There are no thermally accessible electronically excited states
  (3) Hindered rotations indicated by low frequency modes) are not
      treated as such but are treated as vibrations and this may
      case some error
  (4) All equations used are the standard statistical mechanics
      equations for an ideal gas
  (5) All vibrations are strinctly harmonic

------------
INNER ENERGY
------------

The inner energy is: U= E(el) + E(ZPE) + E(vib) + E(rot) + E(trans)
    E(el)   - is the total energy from the electronic structure calculation
              = E(kin-el) + E(nuc-el) + E(el-el) + E(nuc-nuc)
    E(ZPE)  - the the zero temperature vibrational energy from the frequency calculation
    E(vib)  - the the finite temperature correction to E(ZPE) due to population
              of excietd vibrational states
    E(rot)  - is the rotational thermal energy
    E(trans)- is the translational thermal energy

Summary of contributions to the inner energy U:
Electronic energy                ...   -384.66663577 Eh
Zero point energy                ...      0.19857778 Eh     124.61 kcal/mol
Thermal vibrational correction   ...      0.00252436 Eh       1.58 kcal/mol
Thermal rotational correction    ...      0.00141628 Eh       0.89 kcal/mol
Thermal translational correction ...      0.00141628 Eh       0.89 kcal/mol
-----------------------------------------------------------------------
Total thermal energy                   -384.46270107 Eh

Summary of corrections to the electronic energy:
(perhaps to be used in another calculation)
Total thermal correction                  0.00535691 Eh       3.36 kcal/mol
Non-thermal (ZPE) correction              0.19857778 Eh     124.61 kcal/mol
-----------------------------------------------------------------------
Total correction                          0.20393470 Eh     127.97 kcal/mol

--------
ENTHALPY
--------

The enthalpy is H = U + kB*T
                kB is Boltmann's constant
Total free energy                 ...   -384.46270107 Eh
Thermal Enthalpy correction       ...      0.00094421 Eh       0.59 kcal/mol
-----------------------------------------------------------------------
Total Enthalpy                    ...   -384.46175686 Eh

-------
ENTROPY
-------

The entropy contributions are T*S = T*(S(el)+S(vib)+S(rot)+S(trans)
     S(el)   - electronic entropy
     S(vib)  - vibrational entropy
     S(rot)  - rotational entropy
     S(trans)- translational entropy
The entropies will be listed as mutliplied by the temperature to get
units of energy

Electronic entropy                ...      0.00000000 Eh      0.00 kcal/mol
Vibrational entropy               ...      0.00350870 Eh      2.20 kcal/mol
Rotational entropy                ...      0.01296168 Eh      8.13 kcal/mol
Translational entropy             ...      0.01924496 Eh     12.08 kcal/mol
-----------------------------------------------------------------------
Final entropy term                ...      0.03571534 Eh     22.41 kcal/mol

CAUTION: The rotational entropy is not quite correctly treated here
         because it includes a symmetry number that is not yet croorectly
         implemented in ORCA!
For a nonlinear molecule the correct rotational entropy is:
    S(rot) = R*(ln(qrot/sn)+1.5)
    R    = 8.31441 J/mol/K = 1.987191683e-3 kcal/mol/K
    qrot = 613251.7750596
    sn is the rotational symmetry number. We have assumed 3 here
       if it is different for your molecule then you should correct
       the printed rotational entropy by manually evaluating the equation
       as given above

For convenience we print out the resulting values for sn=1 - 12:
 sn= 1  qrot/sn=  613251.7751 T*S(rot)=     8.78 kcal/mol T*S(tot)=    23.06 kcal/mol
 sn= 2  qrot/sn=  306625.8875 T*S(rot)=     8.37 kcal/mol T*S(tot)=    22.65 kcal/mol
 sn= 3  qrot/sn=  204417.2584 T*S(rot)=     8.13 kcal/mol T*S(tot)=    22.41 kcal/mol
 sn= 4  qrot/sn=  153312.9438 T*S(rot)=     7.96 kcal/mol T*S(tot)=    22.24 kcal/mol
 sn= 5  qrot/sn=  122650.3550 T*S(rot)=     7.83 kcal/mol T*S(tot)=    22.11 kcal/mol
 sn= 6  qrot/sn=  102208.6292 T*S(rot)=     7.72 kcal/mol T*S(tot)=    22.00 kcal/mol
 sn= 7  qrot/sn=   87607.3964 T*S(rot)=     7.63 kcal/mol T*S(tot)=    21.91 kcal/mol
 sn= 8  qrot/sn=   76656.4719 T*S(rot)=     7.55 kcal/mol T*S(tot)=    21.83 kcal/mol
 sn= 9  qrot/sn=   68139.0861 T*S(rot)=     7.48 kcal/mol T*S(tot)=    21.76 kcal/mol
 sn=10  qrot/sn=   61325.1775 T*S(rot)=     7.42 kcal/mol T*S(tot)=    21.70 kcal/mol
 sn=11  qrot/sn=   55750.1614 T*S(rot)=     7.36 kcal/mol T*S(tot)=    21.64 kcal/mol
 sn=12  qrot/sn=   51104.3146 T*S(rot)=     7.31 kcal/mol T*S(tot)=    21.59 kcal/mol

-------------------
GIBBS FREE ENTHALPY
-------------------

The Gibbs free enthalpy is G = H - T*S

Total enthalpy                    ...   -384.46175686 Eh
Total entropy correction          ...     -0.03571534 Eh    -22.41 kcal/mol
-----------------------------------------------------------------------
Final Gibbs free enthalpy         ...   -384.49747220 Eh

For completeness - the Gibbs free enthalpy minus the electronic energy
G-E(el)                           ...      0.16916357 Eh    106.15 kcal/mol

                             ****ORCA TERMINATED NORMALLY****
TOTAL RUN TIME: 0 days 1 hours 4 minutes 4 seconds 6 msec
